LAMMPS Polymer Data File

20 atoms
18 bonds

1 atom types
1 bond types

0.0 7.0 xlo xhi
-25.0 25.0 ylo yhi
-5.0 5.0 zlo zhi

Atoms

1 1 1 0.0000 0.000000 0.0000
2 1 1 1.0000 0.000000 0.0000
3 1 1 2.0000 0.000000 0.0000
4 1 1 3.0000 0.000000 0.0000
5 1 1 4.0000 0.000000 0.0000
6 1 1 5.0000 0.000000 0.0000
7 1 1 6.0000 0.000000 0.0000
8 1 1 7.0000 0.000000 0.0000
9 1 1 8.0000 0.000000 0.0000
10 1 1 9.0000 0.000000 0.0000
11 2 1 0.0000 2.500000 0.0000
12 2 1 1.0000 2.500000 0.0000
13 2 1 2.0000 2.500000 0.0000
14 2 1 3.0000 2.500000 0.0000
15 2 1 4.0000 2.500000 0.0000
16 2 1 5.0000 2.500000 0.0000
17 2 1 6.0000 2.500000 0.0000
18 2 1 7.0000 2.500000 0.0000
19 2 1 8.0000 2.500000 0.0000
20 2 1 9.0000 2.500000 0.0000

Bonds

1 1 1 2
2 1 2 3
3 1 3 4
4 1 4 5
5 1 5 6
6 1 6 7
7 1 7 8
8 1 8 9
9 1 9 10
10 1 11 12
11 1 12 13
12 1 13 14
13 1 14 15
14 1 15 16
15 1 16 17
16 1 17 18
17 1 18 19
18 1 19 20
