LAMMPS Polymer Data File

10 atoms
9 bonds

1 atom types
1 bond types

0.0 15.0 xlo xhi
-5.0 5.0 ylo yhi
-5.0 5.0 zlo zhi

Atoms

1 1 1 0.0000 0.0000 0.0000
2 1 1 1.0000 0.0000 0.0000
3 1 1 2.0000 0.0000 0.0000
4 1 1 3.0000 0.0000 0.0000
5 1 1 4.0000 0.0000 0.0000
6 1 1 5.0000 0.0000 0.0000
7 1 1 6.0000 0.0000 0.0000
8 1 1 7.0000 0.0000 0.0000
9 1 1 8.0000 0.0000 0.0000
10 1 1 9.0000 0.0000 0.0000

Bonds

1 1 1 2
2 1 2 3
3 1 3 4
4 1 4 5
5 1 5 6
6 1 6 7
7 1 7 8
8 1 8 9
9 1 9 10
