LAMMPS Polymer Data File

40 atoms
38 bonds

2 atom types
1 bond types

0.0 12.0 xlo xhi
0.0 12.0 ylo yhi
0.0 12.0 zlo zhi

Atoms

1 1 1 2.5000 2.000000 0.0000
2 1 1 3.0000 2.000000 0.0000
3 1 1 3.5000 2.000000 0.0000
4 1 1 4.0000 2.000000 0.0000
5 1 1 4.5000 2.000000 0.0000
6 1 1 5.0000 2.000000 0.0000
7 1 1 5.5000 2.000000 0.0000
8 1 1 6.0000 2.000000 0.0000
9 1 1 6.5000 2.000000 0.0000
10 1 1 7.0000 2.000000 0.0000
11 1 1 7.5000 2.000000 0.0000
12 1 1 8.0000 2.000000 0.0000
13 1 1 8.5000 2.000000 0.0000
14 1 1 9.0000 2.000000 0.0000
15 1 1 9.5000 2.000000 0.0000
16 1 1 10.0000 2.000000 0.0000
17 1 1 10.0000 2.500000 0.0000
18 1 1 9.5000 2.500000 0.0000
19 1 1 9.0000 2.500000 0.0000
20 1 1 8.5000 2.500000 0.0000
21 2 2 8.0000 2.500000 0.0000
22 2 2 7.5000 2.500000 0.0000
23 2 2 7.0000 2.500000 0.0000
24 2 2 6.5000 2.500000 0.0000
25 2 2 6.0000 2.500000 0.0000
26 2 2 5.5000 2.500000 0.0000
27 2 2 5.0000 2.500000 0.0000
28 2 2 4.5000 2.500000 0.0000
29 2 2 4.0000 2.500000 0.0000
30 2 2 3.5000 2.500000 0.0000
31 2 2 3.0000 2.500000 0.0000
32 2 2 2.5000 2.500000 0.0000
33 2 2 2.5000 3.000000 0.0000
34 2 2 3.0000 3.000000 0.0000
35 2 2 3.5000 3.000000 0.0000
36 2 2 4.0000 3.000000 0.0000
37 2 2 4.5000 3.000000 0.0000
38 2 2 5.0000 3.000000 0.0000
39 2 2 5.5000 3.000000 0.0000
40 2 2 6.0000 3.000000 0.0000

Bonds

1 1 1 2
2 1 2 3
3 1 3 4
4 1 4 5
5 1 5 6
6 1 6 7
7 1 7 8
8 1 8 9
9 1 9 10
10 1 10 11
11 1 11 12
12 1 12 13
13 1 13 14
14 1 14 15
15 1 15 16
16 1 16 17
17 1 17 18
18 1 18 19
19 1 19 20
20 1 21 22
21 1 22 23
22 1 23 24
23 1 24 25
24 1 25 26
25 1 26 27
26 1 27 28
27 1 28 29
28 1 29 30
29 1 30 31
30 1 31 32
31 1 32 33
32 1 33 34
33 1 34 35
34 1 35 36
35 1 36 37
36 1 37 38
37 1 38 39
38 1 39 40
